288
energy: -488.657874361822 gnorm: 0.000868804239 xtb: 6.7.1pre (5071a88)
O          5.26170        1.61910       -0.10930
H          5.88060        0.92630        0.25370
H          4.87360        1.23990       -0.89660
O          4.36270        0.26860        4.14540
H          3.78680       -0.41950        3.81510
H          4.33190        1.00870        3.49530
O          3.46720        1.92580        6.14780
H          3.78500        1.26790        5.50310
H          3.70550        2.79130        5.77830
O          4.17800        0.45710       10.15800
H          4.61420        0.84820        9.35740
H          3.38820        0.01570        9.84870
O          6.21410       -0.26020       11.92450
H          7.02430       -0.03690       11.43090
H          5.48850       -0.12850       11.29600
O          5.12520        1.13160       13.94220
H          5.60680        0.72730       13.18170
H          4.47590        0.48390       14.21410
O          6.91340        3.70140        0.56940
H          7.09560        3.14270        1.35790
H          6.32640        3.14500        0.03460
O          4.50910        2.32020        2.44620
H          4.47830        2.07390        1.50910
H          5.47560        2.36140        2.64480
O          5.22860        1.60960        8.06330
H          4.48750        1.72650        7.41310
H          5.62730        2.49720        8.14700
O          4.93730        2.78170       11.44710
H          4.50890        2.01600       11.04400
H          4.63520        3.58850       10.98930
O          4.44750        3.88760       14.03440
H          4.48850        2.95510       13.77340
H          5.34530        4.22240       13.83580
O          7.23470        1.68920       15.54750
H          6.38910        1.50070       15.09850
H          7.15310        2.58070       15.94890
O          5.01880        5.05820        2.23810
H          5.56320        4.77870        1.48940
H          4.57050        4.25780        2.54760
O          4.57400        4.41910        5.53010
H          4.89300        4.33030        6.46190
H          4.22730        5.32090        5.48450
O          5.49460        4.27860        7.99010
H          6.21640        4.95050        7.98340
H          4.91900        4.55790        8.71590
O          4.57770        5.22790       10.34900
H          5.49290        5.49870       10.57360
H          4.00770        5.60630       11.03010
O          3.38070        5.92390       12.70520
H          3.71770        5.11980       13.17380
H          2.64270        6.24700       13.22100
O          4.70770        5.39120       16.39250
H          4.41290        4.83580       15.65300
H          5.49020        4.94180       16.74110
O          5.39350        7.44080        3.47790
H          5.21780        6.59960        3.01250
H          6.00990        7.93080        2.90270
O          3.93940        7.18190        5.70000
H          4.42550        7.39050        4.87660
H          3.04680        7.50760        5.58590
O          5.43750        8.31700        7.76220
H          4.88720        7.91970        7.06530
H          6.07450        8.89920        7.33200
O          6.38100        9.04570       10.35450
H          5.82560        8.83020        9.59650
H          5.94800        8.67440       11.13740
O          5.41390        7.80770       12.60900
H          4.69700        7.15500       12.53740
H          5.54600        7.92140       13.56450
O          6.09640        7.34310       15.14660
H          5.55050        6.76280       15.71840
H          6.98430        7.40240       15.52960
O          6.92040       -0.17120        0.85650
H          7.82600        0.14550        0.69330
H          6.88730       -0.32540        1.81590
O          7.14620       -0.17510        3.60800
H          7.86890       -0.47840        4.19480
H          6.34670       -0.16460        4.15670
O          6.61610        0.19120        6.32160
H          7.17650       -0.46490        6.73890
H          6.12910        0.65780        7.03470
O          8.43680        0.41490       10.45440
H          8.19110        1.35850       10.51470
H          8.58080        0.23630        9.50540
O          9.07990       -0.63370       13.35520
H          8.44180       -1.17410       12.88830
H          8.80480        0.30390       13.18950
O          9.15070       -0.19700       16.06220
H          9.10890       -0.53440       15.14850
H          8.38710        0.39950       16.13140
O          9.64140        3.45980        0.09040
H          9.65190        2.48770        0.12430
H          8.69720        3.68780        0.10990
O          7.13050        2.34380        2.82960
H          7.26390        1.40870        3.12070
H          7.29430        2.91190        3.59420
O          8.24940        2.08970        5.49540
H          7.79230        2.93680        5.59600
H          7.63230        1.37850        5.79070
O          8.05570        2.80570        8.20750
H          8.44440        3.57250        7.75120
H          7.95360        3.03820        9.13790
O          7.50500        2.96450       10.96750
H          7.87670        2.74910       11.84650
H          6.53200        2.84470       11.09910
O          8.46000        1.92060       13.20410
H          9.35030        2.30590       13.23640
H          8.06930        1.94560       14.10600
O          8.08060        5.52280        2.33770
H          7.65870        5.10150        1.58120
H          7.63680        5.15920        3.12840
O          7.08460        4.40860        4.65820
H          6.11440        4.34040        4.80880
H          7.33090        5.21820        5.15700
O          7.16390        6.29560        8.22290
H          7.28640        6.16350        9.18820
H          6.54970        7.04490        8.10790
O          7.23430        5.63230       10.75250
H          7.49040        4.69970       10.90130
H          7.71290        6.18640       11.39630
O          6.80990        5.06750       13.77500
H          7.65990        5.01170       13.28860
H          6.62170        6.00150       13.97310
O          7.22300        4.24350       16.27950
H          7.05780        4.53380       15.35010
H          8.16460        4.40360       16.42030
O          7.52970        8.21700        2.03880
H          7.84430        7.29980        2.13500
H          8.31720        8.76690        1.99720
O          7.32690        6.95530        5.29660
H          8.13510        7.07040        4.74290
H          6.57900        7.18150        4.71080
O          8.08510        8.97720        6.85620
H          7.78600        8.18080        6.36270
H          8.96790        9.17090        6.51750
O          8.77020        8.42430        9.37890
H          8.50030        8.57480        8.44530
H          7.99120        8.70620        9.90340
O          8.21170        7.39120       12.54050
H          8.80360        8.14560       12.31180
H          7.31150        7.74890       12.54370
O          8.86000        7.10540       15.17300
H          9.17950        6.21020       15.33570
H          8.67900        7.16330       14.21060
O          9.49520        0.80440        0.83760
H         10.24310        0.22680        0.67960
H          9.49130        0.97660        1.80820
O          9.15890       -0.89670        5.32880
H         10.04830       -0.96630        4.96380
H          9.23810       -0.44790        6.18930
O          9.12160        0.39280        7.80700
H         10.03470        0.66310        8.03940
H          8.63350        1.24630        7.79120
O         11.05400        0.44510       11.25470
H         10.10580        0.27800       11.09410
H         11.07370        1.18720       11.89880
O         11.80200       -0.61940       13.78740
H         12.17770       -1.11550       13.05830
H         10.84630       -0.56510       13.59500
O         11.73810       -1.17930       16.50150
H         11.87790       -1.04850       15.54870
H         10.80070       -0.99730       16.64700
O         11.14890        3.30800        2.37820
H         10.71170        3.47240        1.52570
H         10.65600        2.55280        2.77890
O          9.78350        1.33620        3.42740
H         10.44570        0.67970        3.74930
H          9.20280        1.54680        4.18490
O         10.73790        2.76460        6.20220
H         10.71800        3.51290        5.57380
H          9.82870        2.41470        6.19120
O         10.30900        3.62210       10.39870
H         10.10520        4.53360       10.11800
H         10.02190        3.57710       11.32170
O         11.09340        2.48130       13.00610
H         11.83650        3.11870       12.94340
H         11.11300        2.16270       13.93040
O         10.74170        1.91870       15.56560
H         11.62580        2.03820       15.96970
H         10.32020        1.10420       15.90140
O         10.52640        6.01480        1.17330
H         10.50880        5.32200        0.50570
H          9.70970        5.89400        1.68980
O         10.27380        4.70390        4.40440
H         10.67410        4.30620        3.59340
H          9.34680        4.44570        4.43540
O          8.95210        4.96960        6.81440
H          9.80170        5.41720        6.80620
H          8.31960        5.58280        7.22880
O         10.16870        6.20330        9.73100
H         10.49140        6.22300        8.80570
H          9.53670        6.94740        9.78430
O          9.26540        4.64940       12.85690
H          9.88980        5.37140       12.67030
H          9.47400        4.42190       13.78570
O          9.84780        4.41090       15.49410
H         10.75050        4.78820       15.56110
H         10.01160        3.45150       15.60780
O         10.56490        8.74600        2.05230
H         10.75340        8.11600        1.34960
H         10.16140        8.20160        2.76020
O          9.62340        7.25130        4.07410
H         10.01820        6.35500        4.15770
H         10.00050        7.79630        4.79680
O         10.73900        8.65420        6.03380
H         10.96230        7.85970        6.54670
H         11.49500        8.82150        5.43780
O         11.13460        9.55210        9.65200
H         10.24840        9.12440        9.51830
H         11.03250       10.45930        9.36530
O          9.91040        9.39230       12.22390
H         10.51570        9.42310       11.47250
H         10.43790        9.21450       13.02770
O         11.18800        8.40470       14.38900
H         11.32550        7.56480       13.88820
H         10.41330        8.21560       14.94150
O         11.71120       -0.30470        4.16800
H         12.12860       -0.03040        5.00400
H         12.28770        0.09080        3.47330
O         12.65150        0.94600        6.39470
H         12.65990        0.79890        7.34440
H         11.93480        1.60440        6.25880
O         11.30730        1.52150        8.83610
H         11.33070        1.02990        9.68350
H         10.84060        2.33860        9.06090
O         13.78640        1.17730       11.06640
H         13.60710        2.04430       10.66500
H         12.95100        0.69550       11.02510
O         13.83760        1.31880       13.75840
H         14.03590        1.23040       12.80370
H         13.10440        0.69890       13.90220
O         13.39670        0.42630       17.86320
H         14.14400       -0.10500       18.13610
H         12.77080       -0.18880       17.41700
O         13.10030        1.26860        2.51140
H         13.75120        1.56260        3.18010
H         12.56520        2.05670        2.33190
O         14.44880        2.21010        4.66710
H         14.28540        3.14920        4.82940
H         13.96190        1.72420        5.35150
O         12.61660        4.04710        7.55950
H         13.15560        4.19630        6.75510
H         11.91060        3.43030        7.28600
O         12.96900        3.70120       10.18220
H         13.04410        3.72470        9.20970
H         12.00070        3.57880       10.34500
O         13.33030        3.93750       12.92690
H         13.59220        3.89150       12.00100
H         13.76360        3.19750       13.37570
O         13.28560        2.51100       16.18260
H         13.68430        2.11580       15.39200
H         13.44710        1.87870       16.90830
O         12.42270        6.05840        3.12030
H         13.31250        6.15690        2.74530
H         11.79730        5.96840        2.37420
O         13.64670        4.86220        5.26500
H         13.99420        5.72840        5.54860
H         13.02330        5.06520        4.54750
O         11.41610        6.37340        7.39220
H         11.86390        5.49140        7.39190
H         12.09150        6.97840        7.78180
O         12.67970        6.34450       10.64300
H         12.95060        5.41840       10.47490
H         11.72870        6.38190       10.38120
O         11.47730        6.10300       13.09560
H         11.92760        5.56580       13.77580
H         12.07870        6.13500       12.33650
O         12.39840        5.07390       15.42950
H         12.88190        4.29760       15.74170
H         12.96150        5.86750       15.56270
O         14.92770        7.11590        2.96570
H         14.55330        7.98030        3.16680
H         15.36170        6.81780        3.76920
O         12.52770        8.56390        4.02560
H         12.42830        7.60960        3.78090
H         12.02570        9.01930        3.33050
O         14.25730        7.43080        5.99640
H         14.05070        7.69420        6.90290
H         13.73550        8.00330        5.41960
O         13.11010        8.02540        8.56130
H         13.26880        7.46170        9.34070
H         12.48560        8.70510        8.88330
O         13.87140        8.02340       12.62240
H         13.58530        7.46980       11.88440
H         13.20150        8.70120       12.73720
O         13.63130        7.43360       15.36220
H         14.02860        7.50420       14.48070
H         12.82990        7.97770       15.30710
