288
 energy: -488.657874102210 gnorm: 0.000765116669 xtb: 6.7.1pre (5071a88)
O            5.26170000000000        1.61910000000000       -0.10930000000000
H            5.88060000000000        0.92630000000000        0.25370000000000
H            4.87360000000000        1.23990000000000       -0.89660000000000
O            9.64140000000000        3.45980000000000        0.09040000000000
H            9.65190000000000        2.48770000000000        0.12430000000000
H            8.69720000000000        3.68780000000000        0.10990000000000
O            6.91340000000000        3.70140000000000        0.56940000000000
H            7.09560000000000        3.14270000000000        1.35790000000000
H            6.32640000000000        3.14500000000000        0.03460000000000
O            9.49520000000000        0.80440000000000        0.83760000000000
H           10.24310000000000        0.22680000000000        0.67960000000000
H            9.49130000000000        0.97660000000000        1.80820000000000
O            6.92040000000000       -0.17120000000000        0.85650000000000
H            7.82600000000000        0.14550000000000        0.69330000000000
H            6.88730000000000       -0.32540000000000        1.81590000000000
O           10.52640000000000        6.01480000000000        1.17330000000000
H           10.50880000000000        5.32200000000000        0.50570000000000
H            9.70970000000000        5.89400000000000        1.68980000000000
O            7.52970000000000        8.21700000000000        2.03880000000000
H            7.84430000000000        7.29980000000000        2.13500000000000
H            8.31720000000000        8.76690000000000        1.99720000000000
O           10.56490000000000        8.74600000000000        2.05230000000000
H           10.75340000000000        8.11600000000000        1.34960000000000
H           10.16140000000000        8.20160000000000        2.76020000000000
O            5.01880000000000        5.05820000000000        2.23810000000000
H            5.56320000000000        4.77870000000000        1.48940000000000
H            4.57050000000000        4.25780000000000        2.54760000000000
O            8.08060000000000        5.52280000000000        2.33770000000000
H            7.65870000000000        5.10150000000000        1.58120000000000
H            7.63680000000000        5.15920000000000        3.12840000000000
O           11.14890000000000        3.30800000000000        2.37820000000000
H           10.71170000000000        3.47240000000000        1.52570000000000
H           10.65600000000000        2.55280000000000        2.77890000000000
O            4.50910000000000        2.32020000000000        2.44620000000000
H            4.47830000000000        2.07390000000000        1.50910000000000
H            5.47560000000000        2.36140000000000        2.64480000000000
O           13.10030000000000        1.26860000000000        2.51140000000000
H           13.75120000000000        1.56260000000000        3.18010000000000
H           12.56520000000000        2.05670000000000        2.33190000000000
O            7.13050000000000        2.34380000000000        2.82960000000000
H            7.26390000000000        1.40870000000000        3.12070000000000
H            7.29430000000000        2.91190000000000        3.59420000000000
O           14.92770000000000        7.11590000000000        2.96570000000000
H           14.55330000000000        7.98030000000000        3.16680000000000
H           15.36170000000000        6.81780000000000        3.76920000000000
O           12.42270000000000        6.05840000000000        3.12030000000000
H           13.31250000000000        6.15690000000000        2.74530000000000
H           11.79730000000000        5.96840000000000        2.37420000000000
O            9.78350000000000        1.33620000000000        3.42740000000000
H           10.44570000000000        0.67970000000000        3.74930000000000
H            9.20280000000000        1.54680000000000        4.18490000000000
O            5.39350000000000        7.44080000000000        3.47790000000000
H            5.21780000000000        6.59960000000000        3.01250000000000
H            6.00990000000000        7.93080000000000        2.90270000000000
O            7.14620000000000       -0.17510000000000        3.60800000000000
H            7.86890000000000       -0.47840000000000        4.19480000000000
H            6.34670000000000       -0.16460000000000        4.15670000000000
O           12.52770000000000        8.56390000000000        4.02560000000000
H           12.42830000000000        7.60960000000000        3.78090000000000
H           12.02570000000000        9.01930000000000        3.33050000000000
O            9.62340000000000        7.25130000000000        4.07410000000000
H           10.01820000000000        6.35500000000000        4.15770000000000
H           10.00050000000000        7.79630000000000        4.79680000000000
O            4.36270000000000        0.26860000000000        4.14540000000000
H            3.78680000000000       -0.41950000000000        3.81510000000000
H            4.33190000000000        1.00870000000000        3.49530000000000
O           11.71120000000000       -0.30470000000000        4.16800000000000
H           12.12860000000000       -0.03040000000000        5.00400000000000
H           12.28770000000000        0.09080000000000        3.47330000000000
O           10.27380000000000        4.70390000000000        4.40440000000000
H           10.67410000000000        4.30620000000000        3.59340000000000
H            9.34680000000000        4.44570000000000        4.43540000000000
O            7.08460000000000        4.40860000000000        4.65820000000000
H            6.11440000000000        4.34040000000000        4.80880000000000
H            7.33090000000000        5.21820000000000        5.15700000000000
O           14.44880000000000        2.21010000000000        4.66710000000000
H           14.28540000000000        3.14920000000000        4.82940000000000
H           13.96190000000000        1.72420000000000        5.35150000000000
O           13.64670000000000        4.86220000000000        5.26500000000000
H           13.99420000000000        5.72840000000000        5.54860000000000
H           13.02330000000000        5.06520000000000        4.54750000000000
O            7.32690000000000        6.95530000000000        5.29660000000000
H            8.13510000000000        7.07040000000000        4.74290000000000
H            6.57900000000000        7.18150000000000        4.71080000000000
O            9.15890000000000       -0.89670000000000        5.32880000000000
H           10.04830000000000       -0.96630000000000        4.96380000000000
H            9.23810000000000       -0.44790000000000        6.18930000000000
O            8.24940000000000        2.08970000000000        5.49540000000000
H            7.79230000000000        2.93680000000000        5.59600000000000
H            7.63230000000000        1.37850000000000        5.79070000000000
O            4.57400000000000        4.41910000000000        5.53010000000000
H            4.89300000000000        4.33030000000000        6.46190000000000
H            4.22730000000000        5.32090000000000        5.48450000000000
O            3.93940000000000        7.18190000000000        5.70000000000000
H            4.42550000000000        7.39050000000000        4.87660000000000
H            3.04680000000000        7.50760000000000        5.58590000000000
O           14.25730000000000        7.43080000000000        5.99640000000000
H           14.05070000000000        7.69420000000000        6.90290000000000
H           13.73550000000000        8.00330000000000        5.41960000000000
O           10.73900000000000        8.65420000000000        6.03380000000000
H           10.96230000000000        7.85970000000000        6.54670000000000
H           11.49500000000000        8.82150000000000        5.43780000000000
O            3.46720000000000        1.92580000000000        6.14780000000000
H            3.78500000000000        1.26790000000000        5.50310000000000
H            3.70550000000000        2.79130000000000        5.77830000000000
O           10.73790000000000        2.76460000000000        6.20220000000000
H           10.71800000000000        3.51290000000000        5.57380000000000
H            9.82870000000000        2.41470000000000        6.19120000000000
O            6.61610000000000        0.19120000000000        6.32160000000000
H            7.17650000000000       -0.46490000000000        6.73890000000000
H            6.12910000000000        0.65780000000000        7.03470000000000
O           12.65150000000000        0.94600000000000        6.39470000000000
H           12.65990000000000        0.79890000000000        7.34440000000000
H           11.93480000000000        1.60440000000000        6.25880000000000
O            8.95210000000000        4.96960000000000        6.81440000000000
H            9.80170000000000        5.41720000000000        6.80620000000000
H            8.31960000000000        5.58280000000000        7.22880000000000
O            8.08510000000000        8.97720000000000        6.85620000000000
H            7.78600000000000        8.18080000000000        6.36270000000000
H            8.96790000000000        9.17090000000000        6.51750000000000
O           11.41610000000000        6.37340000000000        7.39220000000000
H           11.86390000000000        5.49140000000000        7.39190000000000
H           12.09150000000000        6.97840000000000        7.78180000000000
O           12.61660000000000        4.04710000000000        7.55950000000000
H           13.15560000000000        4.19630000000000        6.75510000000000
H           11.91060000000000        3.43030000000000        7.28600000000000
O            5.43750000000000        8.31700000000000        7.76220000000000
H            4.88720000000000        7.91970000000000        7.06530000000000
H            6.07450000000000        8.89920000000000        7.33200000000000
O            9.12160000000000        0.39280000000000        7.80700000000000
H           10.03470000000000        0.66310000000000        8.03940000000000
H            8.63350000000000        1.24630000000000        7.79120000000000
O            5.49460000000000        4.27860000000000        7.99010000000000
H            6.21640000000000        4.95050000000000        7.98340000000000
H            4.91900000000000        4.55790000000000        8.71590000000000
O            5.22860000000000        1.60960000000000        8.06330000000000
H            4.48750000000000        1.72650000000000        7.41310000000000
H            5.62730000000000        2.49720000000000        8.14700000000000
O            8.05570000000000        2.80570000000000        8.20750000000000
H            8.44440000000000        3.57250000000000        7.75120000000000
H            7.95360000000000        3.03820000000000        9.13790000000000
O            7.16390000000000        6.29560000000000        8.22290000000000
H            7.28640000000000        6.16350000000000        9.18820000000000
H            6.54970000000000        7.04490000000000        8.10790000000000
O           13.11010000000000        8.02540000000000        8.56130000000000
H           13.26880000000000        7.46170000000000        9.34070000000000
H           12.48560000000000        8.70510000000000        8.88330000000000
O           11.30730000000000        1.52150000000000        8.83610000000000
H           11.33070000000000        1.02990000000000        9.68350000000000
H           10.84060000000000        2.33860000000000        9.06090000000000
O            8.77020000000000        8.42430000000000        9.37890000000000
H            8.50030000000000        8.57480000000000        8.44530000000000
H            7.99120000000000        8.70620000000000        9.90340000000000
O           11.13460000000000        9.55210000000000        9.65200000000000
H           10.24840000000000        9.12440000000000        9.51830000000000
H           11.03250000000000       10.45930000000000        9.36530000000000
O           10.16870000000000        6.20330000000000        9.73100000000000
H           10.49140000000000        6.22300000000000        8.80570000000000
H            9.53670000000000        6.94740000000000        9.78430000000000
O            4.17800000000000        0.45710000000000       10.15800000000000
H            4.61420000000000        0.84820000000000        9.35740000000000
H            3.38820000000000        0.01570000000000        9.84870000000000
O           12.96900000000000        3.70120000000000       10.18220000000000
H           13.04410000000000        3.72470000000000        9.20970000000000
H           12.00070000000000        3.57880000000000       10.34500000000000
O            4.57770000000000        5.22790000000000       10.34900000000000
H            5.49290000000000        5.49870000000000       10.57360000000000
H            4.00770000000000        5.60630000000000       11.03010000000000
O            6.38100000000000        9.04570000000000       10.35450000000000
H            5.82560000000000        8.83020000000000        9.59650000000000
H            5.94800000000000        8.67440000000000       11.13740000000000
O           10.30900000000000        3.62210000000000       10.39870000000000
H           10.10520000000000        4.53360000000000       10.11800000000000
H           10.02190000000000        3.57710000000000       11.32170000000000
O            8.43680000000000        0.41490000000000       10.45440000000000
H            8.19110000000000        1.35850000000000       10.51470000000000
H            8.58080000000000        0.23630000000000        9.50540000000000
O           12.67970000000000        6.34450000000000       10.64300000000000
H           12.95060000000000        5.41840000000000       10.47490000000000
H           11.72870000000000        6.38190000000000       10.38120000000000
O            7.23430000000000        5.63230000000000       10.75250000000000
H            7.49040000000000        4.69970000000000       10.90130000000000
H            7.71290000000000        6.18640000000000       11.39630000000000
O            7.50500000000000        2.96450000000000       10.96750000000000
H            7.87670000000000        2.74910000000000       11.84650000000000
H            6.53200000000000        2.84470000000000       11.09910000000000
O           13.78640000000000        1.17730000000000       11.06640000000000
H           13.60710000000000        2.04430000000000       10.66500000000000
H           12.95100000000000        0.69550000000000       11.02510000000000
O           11.05400000000000        0.44510000000000       11.25470000000000
H           10.10580000000000        0.27800000000000       11.09410000000000
H           11.07370000000000        1.18720000000000       11.89880000000000
O            4.93730000000000        2.78170000000000       11.44710000000000
H            4.50890000000000        2.01600000000000       11.04400000000000
H            4.63520000000000        3.58850000000000       10.98930000000000
O            6.21410000000000       -0.26020000000000       11.92450000000000
H            7.02430000000000       -0.03690000000000       11.43090000000000
H            5.48850000000000       -0.12850000000000       11.29600000000000
O            9.91040000000000        9.39230000000000       12.22390000000000
H           10.51570000000000        9.42310000000000       11.47250000000000
H           10.43790000000000        9.21450000000000       13.02770000000000
O            8.21170000000000        7.39120000000000       12.54050000000000
H            8.80360000000000        8.14560000000000       12.31180000000000
H            7.31150000000000        7.74890000000000       12.54370000000000
O            5.41390000000000        7.80770000000000       12.60900000000000
H            4.69700000000000        7.15500000000000       12.53740000000000
H            5.54600000000000        7.92140000000000       13.56450000000000
O           13.87140000000000        8.02340000000000       12.62240000000000
H           13.58530000000000        7.46980000000000       11.88440000000000
H           13.20150000000000        8.70120000000000       12.73720000000000
O            3.38070000000000        5.92390000000000       12.70520000000000
H            3.71770000000000        5.11980000000000       13.17380000000000
H            2.64270000000000        6.24700000000000       13.22100000000000
O            9.26540000000000        4.64940000000000       12.85690000000000
H            9.88980000000000        5.37140000000000       12.67030000000000
H            9.47400000000000        4.42190000000000       13.78570000000000
O           13.33030000000000        3.93750000000000       12.92690000000000
H           13.59220000000000        3.89150000000000       12.00100000000000
H           13.76360000000000        3.19750000000000       13.37570000000000
O           11.09340000000000        2.48130000000000       13.00610000000000
H           11.83650000000000        3.11870000000000       12.94340000000000
H           11.11300000000000        2.16270000000000       13.93040000000000
O           11.47730000000000        6.10300000000000       13.09560000000000
H           11.92760000000000        5.56580000000000       13.77580000000000
H           12.07870000000000        6.13500000000000       12.33650000000000
O            8.46000000000000        1.92060000000000       13.20410000000000
H            9.35030000000000        2.30590000000000       13.23640000000000
H            8.06930000000000        1.94560000000000       14.10600000000000
O            9.07990000000000       -0.63370000000000       13.35520000000000
H            8.44180000000000       -1.17410000000000       12.88830000000000
H            8.80480000000000        0.30390000000000       13.18950000000000
O           13.83760000000000        1.31880000000000       13.75840000000000
H           14.03590000000000        1.23040000000000       12.80370000000000
H           13.10440000000000        0.69890000000000       13.90220000000000
O            6.80990000000000        5.06750000000000       13.77500000000000
H            7.65990000000000        5.01170000000000       13.28860000000000
H            6.62170000000000        6.00150000000000       13.97310000000000
O           11.80200000000000       -0.61940000000000       13.78740000000000
H           12.17770000000000       -1.11550000000000       13.05830000000000
H           10.84630000000000       -0.56510000000000       13.59500000000000
O            5.12520000000000        1.13160000000000       13.94220000000000
H            5.60680000000000        0.72730000000000       13.18170000000000
H            4.47590000000000        0.48390000000000       14.21410000000000
O            4.44750000000000        3.88760000000000       14.03440000000000
H            4.48850000000000        2.95510000000000       13.77340000000000
H            5.34530000000000        4.22240000000000       13.83580000000000
O           11.18800000000000        8.40470000000000       14.38900000000000
H           11.32550000000000        7.56480000000000       13.88820000000000
H           10.41330000000000        8.21560000000000       14.94150000000000
O            6.09640000000000        7.34310000000000       15.14660000000000
H            5.55050000000000        6.76280000000000       15.71840000000000
H            6.98430000000000        7.40240000000000       15.52960000000000
O            8.86000000000000        7.10540000000000       15.17300000000000
H            9.17950000000000        6.21020000000000       15.33570000000000
H            8.67900000000000        7.16330000000000       14.21060000000000
O           13.63130000000000        7.43360000000000       15.36220000000000
H           14.02860000000000        7.50420000000000       14.48070000000000
H           12.82990000000000        7.97770000000000       15.30710000000000
O           12.39840000000000        5.07390000000000       15.42950000000000
H           12.88190000000000        4.29760000000000       15.74170000000000
H           12.96150000000000        5.86750000000000       15.56270000000000
O            9.84780000000000        4.41090000000000       15.49410000000000
H           10.75050000000000        4.78820000000000       15.56110000000000
H           10.01160000000000        3.45150000000000       15.60780000000000
O            7.23470000000000        1.68920000000000       15.54750000000000
H            6.38910000000000        1.50070000000000       15.09850000000000
H            7.15310000000000        2.58070000000000       15.94890000000000
O           10.74170000000000        1.91870000000000       15.56560000000000
H           11.62580000000000        2.03820000000000       15.96970000000000
H           10.32020000000000        1.10420000000000       15.90140000000000
O            9.15070000000000       -0.19700000000000       16.06220000000000
H            9.10890000000000       -0.53440000000000       15.14850000000000
H            8.38710000000000        0.39950000000000       16.13140000000000
O           13.28560000000000        2.51100000000000       16.18260000000000
H           13.68430000000000        2.11580000000000       15.39200000000000
H           13.44710000000000        1.87870000000000       16.90830000000000
O            7.22300000000000        4.24350000000000       16.27950000000000
H            7.05780000000000        4.53380000000000       15.35010000000000
H            8.16460000000000        4.40360000000000       16.42030000000000
O            4.70770000000000        5.39120000000000       16.39250000000000
H            4.41290000000000        4.83580000000000       15.65300000000000
H            5.49020000000000        4.94180000000000       16.74110000000000
O           11.73810000000000       -1.17930000000000       16.50150000000000
H           11.87790000000000       -1.04850000000000       15.54870000000000
H           10.80070000000000       -0.99730000000000       16.64700000000000
O           13.39670000000000        0.42630000000000       17.86320000000000
H           14.14400000000000       -0.10500000000000       18.13610000000000
H           12.77080000000000       -0.18880000000000       17.41700000000000
